1584
Lattice="25.25 0.0 0.0 0.0 25.25 0.0 0.0 0.0 25.25" Properties=species:S:1:pos:R:3:momenta:R:3:forces:R:3 generated=T by=T VMD=T energy=-7705.7685546875 free_energy=-7705.7685546875 stress="0.0049566724337637424 -1.0191928595304489e-05 -3.7299469113349915e-07 -1.0191928595304489e-05 0.005301905795931816 -1.3058073818683624e-05 -3.7299469113349915e-07 -1.3058073818683624e-05 0.003846090519800782" pbc="T T T"
O        7.11692300       8.92312500      18.70127300       1.38117367      -0.39431449      -0.49763719       1.79076672      -1.07050264      -0.58653927
H        6.67814700       9.76226300      18.66836200      -0.02374417      -0.06324620      -0.05254862      -1.39523637       1.30875766       0.14714709
H        6.53732800       8.15871700      18.82040800      -0.09076836      -0.11632419       0.03081639      -0.66110659      -0.23274457       0.39335933
O        6.09130200      22.67030100      13.11339500       0.24577770      -0.03551920      -0.26815986       0.25075760       0.62011880       0.00451137
H        5.89123000      22.42315900      12.18254900      -0.08896071       0.16243857       0.16216432       0.07120737      -0.22905533      -0.40554056
H        5.58584800      22.07079100      13.67871400      -0.08973170      -0.04196655      -0.08516336      -0.05618175      -0.72230339       0.16769496
O        8.82990600       6.36512700      24.38722400       0.84430621       0.30293011      -1.26126554      -0.93563676       0.53641337      -0.69611961
H        8.06445500       6.67872800      24.93485600      -0.02018255      -0.00212479      -0.09827298       0.52201748       0.09484179       0.03886705
H        9.12397300       5.52061000      24.80482100      -0.28061942      -0.25696069      -0.03392146       0.61262983      -0.20387819       0.06232129
O        8.24659200      13.24039800       7.97208100       0.50665815       0.66569207      -0.84228836      -0.63403177       2.49056768       1.00606358
H        8.10820400      14.17784700       7.63499300      -0.17066731       0.08851829      -0.17273576       0.15623099      -0.45555305       0.74644625
H        8.37410200      12.81728100       7.13910200       0.08300272      -0.19434546      -0.21915154       0.26479739      -1.84266722      -1.79281354
O       17.57267400       1.53891100       7.37725400       0.16595504      -0.29412450       1.22484561      -0.74123198       0.31602043      -2.02038598
H       17.97084200       2.36945500       7.00671100       0.04611177       0.15198790      -0.39904661      -0.23234658      -0.09110007       0.13509265
H       17.96840100       1.44806400       8.23985200      -0.13766767       0.05672506      -0.13475944       0.79755950      -0.13277447       1.88650882
O       21.95883800      22.33645100      20.95722800       0.14818294      -0.54347965       0.29178405      -1.32575142      -0.00300241       0.81625527
H       21.18970100      21.76427300      20.63871400      -0.08410031      -0.23236270       0.00359669       1.00052369       0.50650597      -0.40359262
H       21.44555500      23.15052200      21.24564600      -0.04616052       0.22314661       0.06083951       0.81188762      -0.17118351      -0.14505240
O       19.86034800      24.06745300      -0.70969100      -0.07337218      -0.03656360      -0.13318153      -0.39316705       1.11148810       1.24377418
H       19.07806400      23.46618300      -0.51434300      -0.06677329      -0.14385307      -0.19630828       0.28295723      -0.12313782       0.03448534
H       19.79674300      24.78124200       0.04298700      -0.16458806       0.21433406       0.18660557       0.47467443      -1.16247368      -1.12412846
O        2.19527800      18.98194100       4.92844400       1.31184136       0.58901873      -0.29244613       1.16896188       0.27864596      -0.72644567
H        3.17420900      18.87745900       4.57588400      -0.05351866       0.04056791       0.09866591      -1.53629458       0.31376627       0.17671132
H        2.00141300      19.96038100       4.78664900       0.22351237       0.23925428       0.19186822       0.49166441      -0.23456430       0.46742344
O        1.85875900      19.32823000      22.14577900       0.10327145      -0.06582623      -0.78411379       0.25776953       0.59564435       1.42356670
H        2.76010100      19.66549300      22.41655500      -0.16685543      -0.17692742      -0.14333526      -0.66413832      -0.44414544       0.14232536
H        1.97545400      19.19039900      21.20810900      -0.34676620      -0.15531647       0.48299641       0.23173182      -0.28954151      -1.44866824
O       24.50902200       6.17539000      21.22508400       0.14073541       0.45629140       0.46883915      -0.35258216      -1.16526258      -1.36136270
H       23.72746700       5.55272200      21.52084700      -0.06081484       0.25344190       0.05371290      -0.23836513       0.64850259       0.32400715
H       24.40251400       6.06824400      20.21519300      -0.14964178      -0.09699606      -0.11370389       0.40847823       0.49083450       0.97243422
O        5.94927400       5.58935600      11.78600800      -1.07248380      -0.43876239       0.34256364       1.00149119       0.04300498       0.53040409
H        6.28152300       5.04332000      12.55018000       0.01838014       0.17110375      -0.14120028      -0.06770702       0.26317337      -0.14019822
H        6.75577000       6.09707700      11.54282600      -0.04575085       0.10712567      -0.12104921      -0.01680678      -0.03698123       0.04612964
O        9.95046600      22.39591400       3.38403600       0.04095521       0.88451270       0.62088890       1.05431533      -0.66968650      -0.44208482
H       10.76195700      21.88716500       3.76243300      -0.09689444      -0.06348490       0.19440335      -0.73786169       0.31775811      -0.35824388
H       10.17296700      23.33411000       3.10656200       0.04995923      -0.18120830      -0.05907581       0.24695450       0.29586819      -0.02178871
O       15.00946400      20.22542800      14.45138200      -0.41512977       0.15410123       0.06566620      -0.13345386      -1.43365419       0.74240404
H       14.96151400      21.14174300      14.27486900      -0.11222021      -0.08458318       0.13429894      -0.33150733       2.43678236      -0.08623312
H       15.23411800      19.86582200      13.58733000      -0.18394454      -0.38960878      -0.03444149       0.13421364      -0.96168238      -0.87577128
O       18.39773400      17.50744100       7.19323900      -0.64202855       0.45867704       0.21639156      -1.15682340       0.99131453       0.75885302
H       18.62196400      17.02017400       6.39686600      -0.22678748      -0.16647173      -0.16984275       0.59065723      -0.76942480      -0.42352051
H       19.06467200      17.36883400       7.87736000       0.08976979       0.00309238      -0.24569703       0.57660073      -0.20808692      -0.18714052
O       23.09293000       8.13659300      10.72376900      -0.34687542       0.12905664      -0.47916627      -0.58021545      -0.43637583       0.08823311
H       22.22128100       7.67387300      10.99156000       0.21889393       0.02043823       0.00112529       1.00603426       0.50718546      -0.39820161
H       23.39001500       7.71925000       9.86273500       0.10001602       0.31571205      -0.11854857      -0.51503390       0.50157928       0.61044812
O       22.10088500       0.68121200       9.00602200       0.04182241       0.32368176       0.04849290       0.12396570       0.01094037      -0.94950336
H       21.37675100       0.41231900       8.35018200       0.02551210      -0.04545554      -0.13843473       0.41927323       0.13261218       0.26535526
H       22.63245400       1.37774200       8.51065700      -0.07996032      -0.36137008      -0.08370656      -0.53712505      -0.23769502       0.67212278
O        8.13431300      15.82213100      18.71548300      -0.35684569      -0.23172464       0.65939827      -0.40747714      -0.05706667      -1.44668090
H        8.35023300      16.81905900      18.66573700       0.38821098      -0.12599347       0.11767449      -0.18185546      -1.04018509       0.18384509
H        7.61744700      15.52967700      17.87486300      -0.14710234      -0.21146346       0.17914476       0.98959410       0.55370796       1.08481264
O        4.56175200      12.55289900      13.86707400       0.73466805       0.50967770      -1.02507734      -0.83475786       0.02059084      -0.39711788
H        3.76827700      12.27592300      13.32332500       0.17034129       0.25086405       0.15627730       0.71739930       0.35744357       0.16946538
H        4.68566700      13.52461100      13.71105600       0.18651135      -0.01563889      -0.20189675      -0.03320745      -0.31286180       0.03643810
O       10.26771100      13.65748400      21.21776800       0.03725128       0.13313706       0.06652212      -1.15016186       1.47951293      -0.24809469
H       10.16676700      14.06661200      20.32054300       0.04835928      -0.17880860       0.05241391       0.35867354      -0.31557342       0.54029369
H       10.93756600      12.97577200      21.13772000       0.07203469      -0.07981510      -0.22070995       0.90619951      -1.05438554      -0.18157837
O        3.53055000       6.92201100      14.82276200      -0.61745855      -1.45877846       0.80044334       0.70913255       0.01183231       0.64693624
H        4.12429100       6.10489600      14.90247400       0.36961650       0.05945813       0.16400221      -0.30473164       0.03347532       0.24980478
H        3.16473000       6.84503200      13.93332600       0.16328320       0.02001162      -0.11932921      -0.31694144      -0.41415024      -1.02783477
O       13.72914900      14.33583600      21.73487500       0.49958474       0.44021991       0.34650725      -0.35903135      -1.34445798      -0.54426819
H       13.09626100      13.57617000      21.77407300      -0.01433306       0.20018333       0.04021291       0.34457579       0.24445830      -0.15043208
H       13.15032600      15.11922900      21.58043900      -0.01197648       0.01940456      -0.10627837      -0.23260118       0.42695418      -0.16721967
O       21.70371100       3.69600100       6.01104400      -0.04196354       0.13049232       0.95976858       0.16050549       0.46490350      -0.78117216
H       22.26928100       3.23117100       6.64039600      -0.04271034      -0.17572942       0.09774423       0.91484416      -0.25777742       0.99526417
H       22.35321200       3.86674700       5.26515800      -0.18461332      -0.02476011      -0.06704793      -0.57645744      -0.12768555      -0.11722156
O       17.33609400       6.52556200      25.63179200      -0.40130923      -0.11913398       0.39587751       1.71460652       0.69799823       0.03689304
H       16.39420700       6.50798600      25.58274500      -0.07448874      -0.04806529       0.07198055      -1.97555470      -0.00747873      -0.02724603
H       17.65494200       5.83720400      24.99951200       0.22553246       0.36187971      -0.27099602       0.02418267      -0.16004273      -0.31155455
O       26.55798300       5.21552800       3.65287500       0.22454839       0.46617756       0.71392416      -0.68017232      -0.27267674      -0.50958073
H       27.35144400       4.62158600       3.57039000       0.23982752      -0.21475356      -0.08051661      -0.02194730       0.13856553       0.25078386
H       25.81803900       4.73716600       3.20302700      -0.07855026       0.19272476      -0.15611431       0.55712342       0.15244780       0.27915892
O       21.28850000       1.22458600      18.24965900      -0.47431369       0.07710212      -0.79300777      -0.82881707      -1.09804022       1.77329707
H       21.77799000       0.50814800      17.82543600      -0.10355259       0.01933561       0.17539038       0.49325475      -1.06988549      -0.77953219
H       21.38248600       1.99353300      17.72016500      -0.07840320       0.20516528      -0.03776957       0.18986607       2.07405615      -0.98583221
O       22.65935900       1.70785000      22.74073800      -0.36059645      -0.75394976       0.66714689      -0.96372122      -1.24872839      -0.24669598
H       22.83319300       2.05824800      21.82543400      -0.02781301       0.20545746       0.06389932      -0.07734594      -0.14446360       0.27420822
H       21.97561600       0.92145600      22.60623900       0.03677852       0.16233733       0.37936244       0.95286709       0.83659399      -0.02942093
O       10.19991600      12.89711900      -0.14777000      -0.18442416      -0.53403630      -0.23372205       1.99396789       0.22443466       0.06455836
H       11.26541900      13.17937400      -0.01413900       0.10683486      -0.30703766      -0.11601751      -1.79740250      -0.73606193      -0.72054034
H        9.88378600      13.08186700       0.74632600       0.08274053       0.05258811       0.22704384      -0.28223839       0.28781608       0.58981740
O       12.57208700      17.46075400      24.85023900       0.70362432       0.03847751       0.27521211      -0.21030274       0.29394427      -0.04204669
H       12.62138100      17.86261400      23.94637700      -0.25684587      -0.17932447       0.05214938       0.24717247      -0.54225004       0.37201208
H       13.20131200      16.70873100      24.93827200      -0.03002483       0.14790278      -0.02509474      -0.31294233       0.06117780      -0.69641536
O       12.43180800      17.38862200      13.94282800      -0.06439521       0.42748568       0.21822601       1.61618876      -0.28137219      -0.46167642
H       13.39216500      17.03626100      14.00203200      -0.23860295       0.41435305       0.10811050      -0.90484440      -0.37416172       0.49102595
H       12.68928700      18.29624000      13.64655300      -0.08601888      -0.11406182       0.19238442      -0.89703095       0.46045464       0.01446913
O        1.12836200       7.01041300       8.32457900       1.58013277       0.75242077       0.47420316       0.13284352      -1.19765222      -0.30590025
H        1.77690300       6.25146100       8.57566500      -0.41746962      -0.03606103      -0.20471841      -0.57011127       0.49355030      -0.04847973
H        1.30588000       7.79037700       8.89055100      -0.35899360       0.08028593       0.07226172       0.22612144       0.16510056       0.03316116
O       13.90542500       8.20378200      20.76392000       0.29185352       0.08768309      -0.33562988       1.31466997      -0.27938074       1.24750340
H       13.07876700       8.58147200      21.10842700       0.11790677       0.18809054       0.00421408      -0.62116879       0.08796339      -0.41775769
H       13.92506500       8.30070400      19.81451400       0.12183018      -0.10079643       0.02279723      -0.20884766       0.14171420      -0.79505402
O        1.47961600      10.36356700      22.02834900       0.04429814      -0.16156152       0.28830346      -0.77563691       0.92174387       0.48983118
H        1.10460600      11.34431700      21.93372500       0.07806910       0.21725279      -0.01605360       0.52834445      -1.23672128       0.17468715
H        2.30607300      10.31214200      21.54254200       0.02062141       0.00182892       0.08215164       0.49137747       0.12097235      -0.49750167
O       19.49617800      23.05975900       4.55442800      -0.01863775      -0.07628649      -0.79083903      -0.75764841       0.41872120      -0.06734747
H       20.09296200      22.85645900       5.29616000      -0.12156657      -0.04177851      -0.04541988       0.41307351      -0.41298810       0.44807294
H       18.79015900      23.63936400       4.94687000       0.09091984       0.04918314      -0.06557434       0.30384782      -0.07374683      -0.05296283
O       25.08179100      15.72961200      20.81021500      -0.65737534       0.12296247      -0.08056527       1.48195803      -0.16071808      -0.92434555
H       25.18570100      14.80254400      21.12565600      -0.09198673       0.11106467       0.02962399      -0.26207200      -0.10186880       0.06507947
H       25.77067400      15.79635100      20.02795600       0.11985739      -0.04085012      -0.36005831      -1.69622266       0.16687088       0.97030753
O       11.71865700      20.94833000       4.64707200       0.46164696       0.74195463      -0.04697637       1.48067772      -3.31691980      -2.39226222
H       12.65725000      20.49238400       4.47391700       0.13076680      -0.13310274      -0.24238598      -1.33628118       0.54546893      -0.55368870
H       11.95996200      21.61245000       5.24948900       0.24022269       0.04361637       0.32924255       0.36148971       2.65700054       2.58527422
O       14.48830300      20.71897900       0.66603100      -0.58441261       0.80529192       0.27793841       0.62304652       0.93920070      -1.75415051
H       14.28311500      21.61066100       1.02563700       0.10992947       0.22654884      -0.20266551       0.07722735      -0.04199390      -0.04532058
H       14.83455400      20.93196700      -0.28291300      -0.17587234      -0.12675349      -0.05232970      -0.82578260      -0.61558628       1.64638186
O       11.77591300      16.66709900       6.12822600       0.03475320      -0.32485332       0.02680313      -1.11402321      -0.38048694       0.38580048
H       10.94760300      17.12594600       5.74163300       0.01058697      -0.06451567      -0.01019408       1.12117469      -0.20675224       0.58134359
H       11.50897900      16.03687500       6.89780500       0.02790588       0.17098673       0.17809954       0.36230087       0.72373855      -1.08733523
O        8.89691000      11.18022500       3.23599100       0.28408598      -0.73668907      -0.06440041      -0.37272882       0.88449508      -0.97719723
H        9.10454800      10.27475600       2.90228900      -0.26404731      -0.11492378       0.07149043       0.27746958      -0.16820376      -0.05588162
H        8.33220800      11.54353600       2.43823100       0.05194874       0.12732871       0.23536703       0.33395392      -0.89650148       1.28200316
O       13.51914100       0.65704400       4.42257400       0.41861454      -0.62955650      -0.22853164      -0.33141327      -0.27605811       1.65760398
H       13.64483900      -0.08336900       3.80102200      -0.02949747       0.10181097      -0.15706073       0.09364200       0.02648260      -0.59941852
H       13.57764200       1.52154600       3.98404400       0.09867812       0.21391536      -0.09048451       0.12891981       0.37008628      -1.07288861
O       23.78651400      14.25958300      23.46233400       0.93602599       0.53037281      -0.93060990       0.60170060       0.24661128       0.75829685
H       24.38693200      13.89369000      24.14502700      -0.27559843      -0.06383586       0.19269555       0.20282692       0.37745890       0.10075690
H       23.41288000      13.42487300      23.16226800      -0.06334092       0.13703846       0.25467429      -0.78740597      -0.44722563      -0.67147070
O       19.84573700      18.02288200       1.41286300       0.61057947      -0.72269018       0.68951146      -0.11967367      -1.75522542      -1.29206383
H       19.92167900      17.11113400       0.89490400       0.08003464      -0.34187180       0.10402240      -0.28920308       1.55549431       1.02366531
H       20.21138000      18.68236200       0.77810000      -0.08629737       0.02892158      -0.08676292       0.25745782      -0.08516941       0.51977605
O       -0.79110000       8.72153500      21.76754600      -0.33377550      -0.43327339      -0.69506229      -0.04078760      -0.80097866       0.00246306
H        0.13058300       9.01549000      21.61763000       0.03283802       0.07394815      -0.27941689       0.17088456       0.67081356       0.27757016
H       -0.75499100       7.71881700      21.56421100       0.32704441       0.11453552       0.24545482      -0.28695658       0.22303632       0.06451837
O       10.26403700       4.34073300      17.90695600       0.76409720      -0.30665906      -1.26141030       1.01661205       0.14552309       0.39144301
H       10.40184200       3.69964200      17.17898800      -0.23707248       0.01749061       0.22713045      -0.23229873      -0.45396212      -0.84231907
H       11.21937900       4.63023200      18.02771900      -0.32982508      -0.08996176       0.10581633      -0.55400693       0.34994301       0.56599522
O       22.81305900      18.48513000      24.17599700       0.19394031      -0.87505098       0.29354740       0.54729408      -0.30395389      -0.18822519
H       23.56715200      19.15505200      24.13179600       0.03061161      -0.05282545      -0.23811498      -0.10790175      -0.44221467      -0.16665027
H       22.08341200      19.01086600      24.59781800       0.34555533      -0.31551037      -0.16494272      -0.14224172       0.04354506       0.05994568
O       19.27805700       9.78872300      18.13067600      -0.36121892       0.26641884      -1.17689580       0.58876729      -0.68774045       0.23727059
H       18.86082500      10.65440900      18.34367900       0.06704393      -0.17547433       0.08690692      -0.16020055       0.21197779      -0.29996261
H       19.33083000       9.66808800      17.16359700       0.22541867      -0.15390226       0.04917334      -0.19768232       0.27016851       0.08489557
O        8.31631100      17.49852000      15.75404300      -0.31808962      -0.24350354      -0.19886555       0.34095216       0.11734757       1.07219374
H        8.19962300      17.39872600      14.80232000       0.16684621      -0.01205615      -0.08538650       0.44131151      -0.29874137      -0.70593762
H        9.27003800      17.29239800      16.03002700       0.16984878       0.05621114       0.15670486      -0.70528299       0.11924046      -0.71263248
O       12.55125000       7.77281200       4.23249400      -0.71107734       0.45487211       0.37651100      -1.13246727       1.96803331      -1.12974930
H       12.53666000       8.71543400       4.58579900      -0.08352269      -0.02952675      -0.02007657       0.16566052      -1.02560127      -0.28243893
H       13.16900600       7.33567500       4.80824000       0.25056617      -0.16554032       0.08665673       1.13430119      -0.98086673       1.10753798
O       -0.05201100      19.46571700      12.14040900      -0.08866694      -0.26661662      -0.53881765      -1.28201568      -2.18606853      -0.32683149
H       -0.03609000      20.34539800      11.79768200      -0.13560119      -0.29162637      -0.17642200       0.33146062       2.17955780      -0.49436179
H        0.75043200      19.34539000      12.63990000       0.20135504       0.06770690      -0.12091220       1.11159754      -0.11169792       0.92662698
O       12.08565300      20.31250000      23.48950800      -0.26407936      -0.49874571       0.00206402       0.47025034       0.12196513      -1.14361858
H       11.23410200      20.50861700      23.02587700       0.17480815       0.06132278      -0.06532049      -0.04725884      -0.06714949       0.07384855
H       11.83816900      20.04841000      24.37820600      -0.24440896       0.24266199       0.11127993      -0.59796911      -0.07930455       0.95210409
O        5.24811100      24.80089600      17.36267300       0.42010913      -0.51961703       1.33060961      -0.98858255      -0.76119709      -0.47980469
H        4.93103400      23.87098500      17.17865400      -0.04949074       0.11488113       0.06178997       0.25402367       0.83552635       0.04044925
H        4.93976000      25.01153400      18.28828600      -0.04624441      -0.11489431       0.12837650       0.16039921      -0.32590547       0.12655203
O        9.94505100      17.00743700       0.22031700       0.65793968       0.26855481       0.64678973       0.94202888       0.21364596       0.23103681
H        9.24461600      17.11330400      -0.45181200       0.15183635      -0.22081108       0.04554268      -0.41123587      -0.26363212      -0.25737458
H       10.83527900      17.09087600      -0.23930700      -0.11426517       0.20427446       0.10674067      -0.48722234      -0.03930794       0.21214205
O        8.67411800      14.23996000      23.42105300      -0.60020668      -0.90963766       1.13365202      -0.41135922      -0.06435014       1.96771634
H        9.17462700      13.97582100      24.28442200      -0.33735300       0.23631951       0.16853758      -0.19820116      -0.10971173      -1.35865176
H        9.29912600      14.07733100      22.69850700       0.04760759       0.05347576      -0.09188662       0.57508349       0.04840816      -0.73114622
O        8.63759700      22.33763700      16.03429000      -0.37183022      -0.14131894       0.32765608       0.13881262      -0.14943972      -0.33583286
H        7.76340500      21.91396900      16.20583500       0.11947871      -0.24244616      -0.04500299      -0.58772606      -0.13478152       0.05625137
H        8.94372100      22.75696900      16.84392400      -0.02985821       0.17862949      -0.15924067       0.05579761       0.01148976       0.48382387
O        8.44309600      16.26311100       7.57915400      -0.71642884      -0.59414478      -0.26626246      -0.80778116       0.47308227       0.39759725
H        9.34207200      16.30663700       7.91789100       0.07781821       0.02889002       0.16279029       0.90173173      -0.25923881       0.11121982
H        7.95765900      16.93331700       8.15178100       0.11391880       0.17907566      -0.09516117       0.31224781      -0.40479684      -0.10528536
O       20.06103900      21.80917900      19.15426300      -0.59233577       0.02912771       0.38484023      -0.99852920      -0.04979341       0.12865666
H       19.52218600      22.63734800      19.26531800       0.20766699       0.00510890      -0.08935506       0.28824455      -0.51086092       0.07187678
H       19.39631800      21.10088900      19.42628700       0.07335423      -0.08205484       0.10374792       0.18576106       0.25524405      -0.44017541
O       13.03060000       9.79425000       6.27276300      -0.39066265      -0.34643274      -0.22151189      -0.43102381      -0.57167149       1.57209325
H       12.96535300       9.40699500       7.23178900      -0.05914789      -0.13386101       0.11294151      -0.00404148       0.64439112      -1.35345185
H       13.84000100      10.33722900       6.32110800       0.10684249      -0.19082915      -0.10248414       0.10164398       0.31397137      -0.38595459
O       19.39839200      15.66407900       5.37240200      -0.54587960      -0.08630664      -1.13360204      -1.05390143      -0.49233207      -0.53035384
H       19.09454000      14.82742500       4.88749800       0.13571206      -0.19002214       0.36327772       0.54391307       0.59385180      -0.26648775
H       19.78207600      16.32282400       4.73770000      -0.18609746       0.11408696      -0.49253689       0.14183965       0.04240412      -0.35084027
O        8.42845200      24.43846700      19.30313500       0.67521746      -0.72102875      -0.28288780      -0.17840496      -0.42659730       0.34333321
H        7.63147300      23.86311500      19.48693300      -0.13655343       0.27923778       0.29758014       0.57911879       0.34042460      -0.14281423
H        8.14782400      25.13092000      18.66845100      -0.12452002       0.09678610       0.20535494      -0.49148962       0.08638600      -0.22584887
O        1.40970500       1.43565500       0.27493800       1.56841689       1.20439281       0.30295760      -1.03709090       0.77959728      -0.70232183
H        0.84475100       0.87058300       0.88416000      -0.16143777       0.21723211       0.05039596       0.49920061      -0.28725278       0.32123396
H        0.75846400       2.09807800      -0.12339100       0.08218823       0.01762986      -0.36595119       0.61531997      -0.53154564      -0.00073299
O       12.59289500       7.73530800      16.68834500       0.23285719      -0.27811146      -1.70738953       0.05934435       0.66232121       0.37500349
H       12.12465000       8.51826500      17.10159100       0.06933425      -0.07515081       0.03078352       0.00735677      -0.00534870      -0.34866458
H       12.49882300       7.01186700      17.35759500       0.29414453      -0.08658365      -0.06810152       0.02118905      -0.67810130       0.30747202
O       14.59306900      12.88340100      13.64085900      -0.22766823      -0.67403484      -0.31098145       1.31476378      -0.61977190      -0.41193166
H       15.55191900      13.16883500      13.41091100      -0.15606415      -0.41563599       0.00657794      -1.51199508       0.39128798       0.32480940
H       14.75355400      11.84861000      13.72309000       0.09159181       0.19257086      -0.09116683      -0.39377460       0.93324542       0.09799794
O       22.52099600      17.78261900      21.46746400       0.38890437       0.34443294       0.04303660       1.15306175      -1.38449109       0.09557191
H       23.37792400      17.24218400      21.35759400       0.05428958       0.21696298       0.15524529      -1.28732550       0.80719435       0.31682983
H       22.37171000      17.87854800      22.45762100      -0.04307979      -0.09471614       0.07955468       0.46093830       0.29695600      -0.28172180
O       16.38932000      23.53168900       8.24309300       0.32538069      -0.37156126      -0.51663234       0.08898550      -0.35427049      -3.44277382
H       16.79101800      23.97416100       7.35190900      -0.02758332       0.03206195      -0.21613455      -0.56329095      -0.59886765       2.21768117
H       15.90061400      22.82468400       7.68029300       0.10749640       0.02910484       0.05485878       0.08954072       0.59302115       1.43537557